<?xml version="1.0"?><VTKFile type="PolyData" version="0.1" byte_order="LittleEndian">
<PolyData>
<Piece NumberOfLines="1864" NumberOfPoints="1865">
<CellData Scalars=" CellData">
<DataArray type="Float32" Name="time" NumberOfComponents="1" format="ascii" >
0.936543 1.71705 2.65191 3.61654 3.66971 4.60089 5.55267 6.4428 7.44906 7.63895 8.43741 9.37085 10.2233 11.1509 12.2113 12.3304 13.4049 13.4595 14.5476 14.6486 15.7512 15.8002 16.9171 16.9292 18.0602 18.1973 19.1447 20.2101 21.3833 21.5069 22.5175 23.7213 23.7511 24.9715 25.1535 26.3933 26.6204 27.6553 28.9301 28.9328 30.2197 31.3313 32.6595 32.7171 34.066 34.1578 35.4658 36.8568 36.8862 38.2994 38.4862 39.7542 41.2135 41.3635 42.8493 42.9297 44.4401 45.9779 46.1934 47.6023 49.0339 50.6527 50.9383 52.5919 52.6073 54.0328 55.7447 55.9245 57.673 57.7452 59.5297 59.7864 60 18.5347 19.606 19.7325 20.7055 21.8415 22.8887 24.1291 24.1542 25.4486 25.5052 26.8601 26.9258 28.3472 28.3486 29.7509 31.0673 32.7027 32.7725 34.4823 36.319 36.6 38.5741 38.7375 40.8611 40.9527 43.2437 43.3313 45.5134 48.1807 51.1201 51.1535 54.4129 54.6905 57.7881 60 23.88 32.501 25.0228 32.4288 26.5046 26.614 32.3528 37.9221 27.3627 35.3943 29.0025 38.5584 30.4005 30.529 38.8009 32.1764 32.2273 37.4534 42.3909 33.692 37.1195 43.47 35.2817 43.4093 37.4336 50.0191 39.073 39.3772 47.9012 50.9829 41.1196 46.4044 52.0303 43.5793 43.6051 52.601 46.0071 53.6898 48.8491 57.1556 51.7233 59.0746 54.7661 60 58.7461 60 19.478 20.2211 21.069 21.9789 22.836 23.7916 24.8609 24.9552 25.9071 27.0744 27.184 28.3061 29.5958 29.8922 31.2699 31.3924 32.8592 32.8695 34.4297 34.6187 36.2974 36.6465 38.2457 40.1621 42.243 44.1301 46.3553 48.8537 51.9273 52.5584 55.8753 59.2933 60 23.5525 28.7513 30.9062 24.5819 33.2587 25.6932 25.8275 30.6763 35.3251 26.4344 29.2269 34.4684 27.7783 27.9949 37.4838 28.9941 36.9881 30.4219 42.1357 31.5642 31.5816 39.3117 32.9017 42.0485 34.6354 38.6507 42.8955 36.6055 36.6195 41.3908 46.7606 38.255 38.3804 47.4501 40.3566 49.1717 42.9533 43.0939 52.9619 44.8068 48.4949 54.2102 47.0064 47.08 50.3188 53.9976 49.8236 57.8772 52.556 52.566 60 55.3666 60 59.0566 59.0883 60 20.6778 21.2875 22.186 22.262 23.1063 24.0735 24.1077 24.987 26.0309 26.0388 27.1283 27.2899 28.4364 28.4647 29.6296 30.8908 31.0132 32.3277 33.736 33.8512 35.3501 35.4327 37.0132 38.6342 40.0336 41.9671 42.0888 44.1621 46.457 46.6676 49.2158 49.3226 52.1714 52.4352 55.685 56.0753 59.7559 60 25.2573 34.2131 26.641 26.7285 31.1526 39.7253 27.9966 28.2817 35.529 45.303 28.4058 31.6487 37.7861 29.6601 29.7057 35.5373 40.8543 30.896 30.904 35.2176 42.7625 32.1832 39.1253 41.6915 33.4816 33.7074 37.8043 43.8871 34.9441 35.0341 44.6533 36.4295 39.9658 45.8147 38.0205 41.794 46.8639 39.9373 40.1547 45.3359 49.8998 41.862 42.0966 45.7385 52.2003 44.0792 50.4382 55.0392 45.7406 49.3052 54.0445 47.7475 47.9637 56.5404 50.555 50.6731 55.0817 60 53.1871 53.325 60 56.9542 60 60 21.9749 22.751 23.8251 24.8579 25.9174 27.123 28.3532 29.679 29.7522 31.0228 32.4151 33.9393 33.9799 35.4825 37.1766 37.1962 38.9936 39.0473 40.8521 42.8225 44.795 47.1348 47.5015 49.9862 52.7923 52.9265 56.0391 56.8017 59.9532 60 27.0852 27.1706 36.9167 27.9723 31.8071 36.3851 29.3654 33.4448 38.8425 30.5886 30.6647 34.5679 40.7825 31.9995 32.3119 40.8376 43.0362 33.3039 33.4126 41.7607 34.7979 35.0011 42.7515 36.224 39.0427 45.4111 37.9896 41.2225 47.759 39.8157 45.3129 49.0767 41.5888 46.9404 50.7326 43.7241 52.2238 45.7563 49.6089 53.9508 48.1 56.4579 50.5939 59.0138 52.9997 56.0929 60 56.4849 60 59.8469 60 22.8529 23.6348 24.457 24.4924 25.3242 26.2135 27.1408 27.2312 28.1567 29.1043 29.9824 31.0574 32.2207 32.3164 33.3153 34.6088 34.7859 36.1722 36.3678 37.7508 39.2751 40.9897 41.086 42.6675 44.6833 44.6872 46.7481 48.6745 50.5416 53.4916 53.6144 56.3232 60 27.2458 27.4344 34.9664 28.4286 39.0435 29.0849 31.9794 38.8198 30.2372 30.353 39.4084 31.1909 36.7391 39.8919 32.3419 41.1011 33.6358 42.6855 34.3719 37.7415 41.8816 35.7769 39.1742 44.9284 37.2451 37.4812 40.8959 47.1335 38.5502 47.4878 40.4424 40.5188 50.1827 42.4392 42.5182 52.685 44.0853 47.9269 54.0926 45.9649 53.474 48.4842 54.5365 58.6193 50.6569 50.7346 55.963 60 53.4776 53.5241 57.4598 60 56.5922 56.5964 60 59.4385 59.6441 60 24.2085 25.2561 26.3817 26.5035 27.6749 28.8638 29.9519 31.2657 31.2975 32.671 32.7651 34.2069 34.3395 35.8584 35.9768 37.425 39.1074 39.1571 40.8901 42.7779 42.829 44.8429 44.9119 47.0709 47.1861 49.5161 49.6318 52.0833 54.8307 55.0899 58.1316 58.4353 60 29.4564 33.9121 38.4882 30.7684 35.5922 39.2488 31.909 37.7322 39.1253 33.6423 33.7922 43.8243 34.8647 39.5411 45.4294 36.1245 43.4188 38.2001 47.133 39.7335 39.7872 47.9854 41.5482 41.6379 44.5694 50.4442 43.43 47.2139 53.4824 45.6348 45.6672 50.4305 57.2103 47.4812 47.5121 51.486 56.9088 49.692 53.5077 58.6385 52.5018 52.5988 60 55.3225 55.3467 60 58.4285 58.4536 60 25.4815 26.3564 27.2211 28.0372 29.0455 29.0939 30.1423 31.191 32.3313 32.4716 33.6418 34.8968 34.9097 36.2286 36.2387 37.6282 37.807 39.1566 40.7151 40.8227 42.3785 44.1397 46.0226 48.0338 50.2492 50.4663 52.9079 53.0881 55.7488 58.7694 58.9839 60 30.3184 38.4769 31.5852 41.9269 32.4492 32.5238 42.6544 33.8079 33.8698 45.3202 34.5761 38.2263 43.4918 35.8896 43.9551 37.219 37.2525 43.7173 38.888 38.9065 43.828 49.2662 40.4002 46.4122 50.8953 41.8149 50.32 43.7126 51.8158 45.317 45.4486 53.9456 47.376 55.1375 49.2893 49.3639 57.58 51.6385 54.8705 60 53.9027 56.9444 60 56.6992 56.7164 60 59.801 60 26.5604 27.5494 28.5623 29.5963 30.7433 30.7466 31.9407 31.9639 33.1783 34.4785 34.6319 36.0001 36.0757 37.4749 38.9867 39.1317 40.7343 40.7556 42.2318 44.0196 44.3781 46.3069 46.3422 48.2176 50.1871 52.5584 52.8619 55.4713 55.6962 58.2418 60 31.6837 40.3917 41.8914 32.6969 41.265 33.933 34.1824 44.5368 35.0954 43.2066 44.4362 36.5126 36.6969 45.5899 37.7419 45.5674 39.5017 39.5276 45.4799 48.486 41.0534 41.065 43.8361 49.9394 43.4795 43.5021 48.9597 60 44.7378 44.914 53.6671 46.4292 53.1466 48.3253 48.3492 56.2474 51.1123 51.2107 58.205 60 53.3083 53.3549 57.2233 60 55.5402 59.8078 60 58.1956 58.38 60 27.5984 28.5042 29.4759 29.4961 30.4858 31.5026 32.4906 33.5738 34.5821 35.8187 35.8618 37.1022 38.4694 38.5187 39.8419 41.211 42.8223 42.9315 44.6453 46.2403 48.2127 48.3546 50.5029 50.567 52.6475 54.849 57.6482 57.885 60 32.0873 32.2836 41.792 33.0389 33.1611 41.0334 34.0428 34.2331 38.8545 43.0564 35.4295 40.8872 46.0061 36.4838 36.5318 43.6477 46.4941 37.6192 37.8054 43.8547 47.6471 38.9273 39.0153 43.7928 50.5379 39.9599 40.0463 47.1017 47.1017 41.7091 48.4147 51.7776 43.0603 45.607 51.2887 45.0107 45.0468 48.9674 57.4907 46.4778 46.5563 56.4997 48.422 48.692 53.1749 59.1162 50.3558 54.3525 59.2025 52.4553 52.7042 56.6727 60 55.0025 58.9586 60 57.632 60 60 28.5496 29.3601 30.2405 31.1423 32.0268 33.0125 33.1023 33.9485 34.8099 35.9191 36.0988 37.2704 37.4696 38.7115 38.8546 40.172 40.1832 41.5316 42.8648 44.4285 44.4315 46.104 46.1847 47.9829 49.9319 50.0249 52.154 52.1645 54.5011 54.7867 57.4069 57.5563 60 32.7016 32.7828 40.9841 33.9735 43.7774 34.6383 41.6645 35.4677 38.389 44.9478 36.7102 44.2415 37.8108 41.5581 47.6602 38.826 42.1043 49.2925 40.1568 40.2112 48.0406 41.8613 42.0994 51.6122 43.3231 43.4082 46.1975 52.6414 44.9018 44.9369 49.3718 53.3739 46.3884 49.4646 55.2115 48.0025 51.0237 56.8716 50.3337 60 52.1549 52.1855 60 54.5842 54.6047 60 56.8521 60 59.8295 59.8403 60 29.7148 30.6059 30.6362 31.4589 32.4173 32.4478 33.4202 34.4606 34.5848 35.5108 36.5387 37.7244 37.8564 39.0854 40.2936 41.3529 42.5784 44.0286 45.6549 45.6645 47.4077 47.4175 49.1751 51.1996 51.3918 53.4901 55.9264 56.1195 58.7028 60 34.2432 34.2475 44.5013 34.976 35.1033 38.1219 45.6559 36.2522 36.3122 40.1757 47.9543 37.222 37.3338 41.6206 47.5355 38.4406 38.4664 42.1443 47.5096 39.5109 46.5912 40.7702 49.7973 42.2438 46.5161 52.7336 43.7012 52.9149 53.598 44.8701 45.0305 51.9757 46.1445 53.165 54.4076 47.5308 54.7643 49.4064 58.3145 51.5159 51.8155 57.9398 60 53.7714 60 55.7812 55.8342 60 58.7715 60 31.2601 32.261 32.297 33.31 34.3855 34.4967 35.6178 35.717 36.8586 38.0217 39.091 40.3422 41.7191 41.8451 43.2969 43.4162 44.9507 45.0565 46.5886 48.1987 50.0164 50.3189 52.2788 52.607 54.7334 55.0882 57.3598 59.6408 60 36.7451 36.8125 46.2706 37.8387 47.657 39.0473 46.7728 40.3037 40.3754 48.296 41.5192 41.6635 46.3545 49.4384 43.0841 46.9876 53.4739 44.2433 52.2045 45.576 45.596 52.9806 47.4724 47.4828 54.673 49.1543 53.1398 57.5057 51.5392 51.6021 60 53.3042 60 54.9859 59.9159 60 57.7876 60 60 32.4475 33.25 33.3755 34.2117 34.2593 35.1289 35.1728 36.0006 36.9402 37 37.9342 38.8662 39.9336 40.0497 41.1132 42.1446 43.3803 43.4413 44.7509 44.8005 46.1925 46.21 47.4401 48.9915 50.5166 52.3179 52.435 54.3694 56.4248 58.7828 59.121 60 36.7459 44.7499 37.8637 42.601 47.8717 38.9101 44.3048 48.4712 40.0558 49.5587 41.1029 45.9795 50.9175 42.862 43.1448 58.0554 43.3654 49.7593 54.5597 44.4449 44.5467 47.6265 53.2258 45.5941 49.0611 53.8143 46.872 47.0628 50.9898 55.3098 48.5203 57.2967 50.1176 50.1481 57.8069 51.8304 51.8332 55.5511 59.8176 53.3876 60 55.5429 55.7113 60 57.4992 57.6336 60 59.9164 60 34.0914 34.8771 35.7822 36.8203 37.9188 38.1446 39.2969 39.3314 40.4625 41.5373 42.8395 42.9686 44.3398 44.4203 45.7715 47.2892 47.3606 48.869 50.4762 52.2769 52.5868 54.4604 56.5191 58.7401 60 39.3003 42.9775 53.3121 40.0889 40.1049 44.3222 49.8974 41.1531 44.439 50.7199 42.8426 43.118 52.629 43.9527 52.1609 45.4637 50.697 55.5469 46.8606 47.1421 59.2685 48.0056 50.7107 55.5373 50.0714 59.3977 51.4671 54.8194 60 53.4019 60 55.3746 55.4232 60 57.2196 60 59.9257 59.9867 60 35.2754 35.9277 36.7072 36.72 37.4864 38.3131 39.1852 39.3512 40.267 40.2874 41.2444 41.3047 42.251 43.301 43.4579 44.5697 44.5851 45.7578 45.7653 47.0056 47.139 48.1363 49.5246 49.5929 51.0811 51.1008 52.6254 54.3462 54.4274 56.1589 57.9089 59.9374 60 39.7922 39.7974 51.0368 40.0837 48.7562 41.1328 41.166 44.166 50.5517 41.8648 45.8889 49.3836 43.1566 51.311 44.4076 44.4443 53.1443 45.6482 45.7415 55.4994 55.4994 46.8433 46.9506 56.9473 48.3649 48.5823 58.4222 49.4897 49.5255 57.4944 50.9954 51.4073 55.8846 60 52.4831 52.5654 55.6789 60 53.893 60 55.7324 60 57.4755 57.4976 60 59.2812 60 36.9042 37.6291 38.5062 39.5007 40.6031 40.843 41.9606 43.167 43.327 44.5954 44.7084 46.0429 46.1802 47.569 49.0517 49.0554 50.6216 50.8674 52.5155 54.2443 55.8855 57.8645 59.7889 60 41.6222 46.0282 51.6767 42.311 49.6727 43.4946 43.5273 50.3983 45.1842 53.5355 46.2346 54.2604 47.6894 50.1697 55.4859 49.4223 57.619 51.0484 55.5806 58.7576 53.3184 53.5845 60 54.7026 60 56.5661 60 58.677 60 60 38.4276 39.3826 39.4524 40.4443 40.4758 41.506 41.566 42.6148 43.6337 44.7917 44.899 46.0805 47.3486 47.3928 48.7242 48.872 50.2789 50.3351 51.8209 52.0074 53.5889 53.7653 55.4323 57.2301 57.3889 59.3239 59.5277 60 43.4735 47.0068 54.538 44.6456 50.3502 55.3206 45.6131 45.6801 53.3971 47.0971 47.2071 54.5225 58.3693 48.0583 57.67 49.4546 52.8428 58.8535 50.995 51.1854 60 52.231 55.1029 60 54.1658 54.178 58.6858 60 55.6589 59.8724 60 57.9878 58.1511 60 59.7207 60 39.494 40.1431 41.011 41.0968 42.0014 42.0188 42.8164 43.7468 44.6968 45.7551 45.8224 46.9341 47.099 48.118 49.3471 49.5294 50.7809 51.9599 53.2483 54.5565 56.188 56.2516 58.0102 58.0619 59.9676 59.9902 60 43.641 49.8583 54.389 44.6446 48.2856 56.1104 45.4487 54.1278 46.4003 50.7492 55.3825 47.7128 47.8933 58.4377 48.8797 49.2897 60 50.02 50.2437 60 51.4055 60 52.5009 52.5897 58.1589 60 53.9573 56.7716 60 55.7725 55.7811 60 56.7436 59.5272 60 58.6615 58.9803 60 59.9474 60 41.0835 42.2018 42.3208 43.4457 44.4477 45.6976 45.8256 47.1339 47.1642 48.5319 48.5769 49.7372 51.2269 51.36 52.9323 53.0579 54.5704 56.0946 57.8602 59.7678 60 46.8401 46.9698 52.1971 56.6044 48.1925 57.3163 49.2697 58.6876 50.6687 53.6806 59.9891 52.2001 56.7973 60 53.8399 53.9165 57.6813 60 55.2275 60 57.007 57.2843 60 59.1465 59.2023 60 60 42.4502 43.3066 43.5943 44.4913 44.609 45.5437 45.5926 46.5232 47.3868 48.4277 49.4179 50.5545 50.6252 51.8192 51.8336 53.0876 54.4079 54.4288 55.8237 56.0133 57.5018 57.6888 59.2792 60 47.1669 47.2273 52.7734 56.5188 48.1979 48.2832 51.2111 57.7103 49.3186 52.9307 58.5479 50.3781 54.6901 60 51.2539 56.6785 59.2677 52.5341 52.5688 59.7497 53.7449 53.7943 57.8646 60 54.77 60 56.5162 56.853 60 58.286 58.3331 60 59.2954 60 43.6526 44.4437 44.5942 45.2722 46.1202 46.1393 46.9874 47.9002 48.0546 48.9853 49.8522 50.8847 50.9218 52.003 52.113 53.2513 53.3947 54.5977 54.6991 55.972 56.1718 57.4379 58.6387 60 48.3983 48.6675 54.0698 59.9624 49.0122 49.1444 57.7645 50.1829 50.2265 60 50.9397 55.6298 59.9249 52.1298 52.2722 56.172 60 53.1075 53.2126 60 54.1692 60 55.4665 55.5518 58.5901 60 56.7613 60 58.4435 60 60 45.3094 46.2135 46.2177 47.0948 48.0644 48.1154 49.1244 49.1966 50.2493 50.5422 51.652 51.8722 53.0042 54.1396 55.4181 55.4657 56.6812 58.0944 58.146 59.6434 59.6776 60 50.193 50.3107 56.3196 59.7449 51.2496 51.3767 60 52.516 52.5872 60 53.7316 53.9696 60 55.1576 55.2225 60 56.7681 56.8302 60 57.9043 57.9841 60 59.1756 60 60 47.2452 48.3238 48.3594 49.4175 50.5735 51.6315 52.8446 54.1418 54.1951 55.5489 56.8939 58.3769 58.5236 59.7596 60 53.1784 53.4129 59.5162 60 54.0879 54.1162 60 55.3105 60 56.6071 56.6442 60 58.1765 60 59.5833 59.6532 60 48.8112 49.5886 49.6323 50.4387 50.4504 51.2867 51.4134 52.2864 52.3707 53.0783 54.0066 54.9866 55.1111 56.0446 57.1181 57.1927 58.3228 58.409 59.4285 60 53.1701 53.2679 60 54.3533 60 55.4436 55.5487 60 56.6219 56.6816 60 57.1174 57.2696 60 57.8897 60 59.5295 60 60 50.3544 51.248 52.2958 52.3527 53.4032 54.534 54.6458 55.8276 55.9851 57.1987 58.4925 58.5313 59.8879 59.9469 60 55.6302 55.8722 60 56.8966 60 58.0298 60 59.6298 59.8304 60 51.8946 52.8174 53.1029 54.0687 54.2008 55.1481 56.0664 57.1432 58.2682 58.3375 59.5145 59.6211 60 57.6056 60 58.979 59.019 60 59.7934 59.9432 60 60 53.29 53.9531 54.0244 54.7137 54.895 55.6166 55.7361 56.4903 56.589 57.378 57.4075 58.1217 58.8973 59.6942 60 57.3578 57.4355 60 58.4082 58.483 60 58.9627 59.044 60 60 60 54.9826 55.9206 56.177 57.1592 57.2673 58.2917 58.3213 59.3883 59.5626 60 60 56.7453 57.6574 57.8321 58.7835 58.9529 59.8825 60 58.8119 59.7971 60 60 
</DataArray>
<DataArray type="Float32" Name="type" NumberOfComponents="1" format="ascii" >
1 1 1 1 1 1 1 1 1 1 1 1 1 1 1 1 1 1 1 1 1 1 1 1 1 1 1 1 1 1 1 1 1 1 1 1 1 1 1 1 1 1 1 1 1 1 1 1 1 1 1 1 1 1 1 1 1 1 1 1 1 1 1 1 1 1 1 1 1 1 1 1 1 3 3 3 3 3 3 3 3 3 3 3 3 3 3 3 3 3 3 3 3 3 3 3 3 3 3 3 3 3 3 3 3 3 3 3 2 2 2 2 2 2 2 2 2 2 2 2 2 2 2 2 2 2 2 2 2 2 2 2 2 2 2 2 2 2 2 2 2 2 2 2 2 2 2 2 2 2 2 2 2 2 3 3 3 3 3 3 3 3 3 3 3 3 3 3 3 3 3 3 3 3 3 3 3 3 3 3 3 3 3 3 3 3 3 2 2 2 2 2 2 2 2 2 2 2 2 2 2 2 2 2 2 2 2 2 2 2 2 2 2 2 2 2 2 2 2 2 2 2 2 2 2 2 2 2 2 2 2 2 2 2 2 2 2 2 2 2 2 2 2 3 3 3 3 3 3 3 3 3 3 3 3 3 3 3 3 3 3 3 3 3 3 3 3 3 3 3 3 3 3 3 3 3 3 3 3 3 3 2 2 2 2 2 2 2 2 2 2 2 2 2 2 2 2 2 2 2 2 2 2 2 2 2 2 2 2 2 2 2 2 2 2 2 2 2 2 2 2 2 2 2 2 2 2 2 2 2 2 2 2 2 2 2 2 2 2 2 2 2 2 2 2 3 3 3 3 3 3 3 3 3 3 3 3 3 3 3 3 3 3 3 3 3 3 3 3 3 3 3 3 3 3 2 2 2 2 2 2 2 2 2 2 2 2 2 2 2 2 2 2 2 2 2 2 2 2 2 2 2 2 2 2 2 2 2 2 2 2 2 2 2 2 2 2 2 2 2 2 2 2 2 2 2 3 3 3 3 3 3 3 3 3 3 3 3 3 3 3 3 3 3 3 3 3 3 3 3 3 3 3 3 3 3 3 3 3 2 2 2 2 2 2 2 2 2 2 2 2 2 2 2 2 2 2 2 2 2 2 2 2 2 2 2 2 2 2 2 2 2 2 2 2 2 2 2 2 2 2 2 2 2 2 2 2 2 2 2 2 2 2 2 2 2 2 3 3 3 3 3 3 3 3 3 3 3 3 3 3 3 3 3 3 3 3 3 3 3 3 3 3 3 3 3 3 3 3 3 2 2 2 2 2 2 2 2 2 2 2 2 2 2 2 2 2 2 2 2 2 2 2 2 2 2 2 2 2 2 2 2 2 2 2 2 2 2 2 2 2 2 2 2 2 2 2 2 2 3 3 3 3 3 3 3 3 3 3 3 3 3 3 3 3 3 3 3 3 3 3 3 3 3 3 3 3 3 3 3 3 2 2 2 2 2 2 2 2 2 2 2 2 2 2 2 2 2 2 2 2 2 2 2 2 2 2 2 2 2 2 2 2 2 2 2 2 2 2 2 2 2 2 2 2 2 2 2 2 3 3 3 3 3 3 3 3 3 3 3 3 3 3 3 3 3 3 3 3 3 3 3 3 3 3 3 3 3 3 3 2 2 2 2 2 2 2 2 2 2 2 2 2 2 2 2 2 2 2 2 2 2 2 2 2 2 2 2 2 2 2 2 2 2 2 2 2 2 2 2 2 2 2 2 2 2 2 2 2 2 3 3 3 3 3 3 3 3 3 3 3 3 3 3 3 3 3 3 3 3 3 3 3 3 3 3 3 3 3 2 2 2 2 2 2 2 2 2 2 2 2 2 2 2 2 2 2 2 2 2 2 2 2 2 2 2 2 2 2 2 2 2 2 2 2 2 2 2 2 2 2 2 2 2 2 2 2 2 2 2 2 2 2 2 2 2 2 2 3 3 3 3 3 3 3 3 3 3 3 3 3 3 3 3 3 3 3 3 3 3 3 3 3 3 3 3 3 3 3 3 3 2 2 2 2 2 2 2 2 2 2 2 2 2 2 2 2 2 2 2 2 2 2 2 2 2 2 2 2 2 2 2 2 2 2 2 2 2 2 2 2 2 2 2 2 2 2 2 2 2 2 2 3 3 3 3 3 3 3 3 3 3 3 3 3 3 3 3 3 3 3 3 3 3 3 3 3 3 3 3 3 3 2 2 2 2 2 2 2 2 2 2 2 2 2 2 2 2 2 2 2 2 2 2 2 2 2 2 2 2 2 2 2 2 2 2 2 2 2 2 2 2 2 2 2 2 2 2 2 2 2 2 3 3 3 3 3 3 3 3 3 3 3 3 3 3 3 3 3 3 3 3 3 3 3 3 3 3 3 3 3 2 2 2 2 2 2 2 2 2 2 2 2 2 2 2 2 2 2 2 2 2 2 2 2 2 2 2 2 2 2 2 2 2 2 2 2 2 2 2 3 3 3 3 3 3 3 3 3 3 3 3 3 3 3 3 3 3 3 3 3 3 3 3 3 3 3 3 3 3 3 3 2 2 2 2 2 2 2 2 2 2 2 2 2 2 2 2 2 2 2 2 2 2 2 2 2 2 2 2 2 2 2 2 2 2 2 2 2 2 2 2 2 2 2 2 2 2 2 2 2 3 3 3 3 3 3 3 3 3 3 3 3 3 3 3 3 3 3 3 3 3 3 3 3 3 2 2 2 2 2 2 2 2 2 2 2 2 2 2 2 2 2 2 2 2 2 2 2 2 2 2 2 2 2 2 2 2 2 2 2 2 2 2 2 3 3 3 3 3 3 3 3 3 3 3 3 3 3 3 3 3 3 3 3 3 3 3 3 3 3 3 3 3 3 3 3 3 2 2 2 2 2 2 2 2 2 2 2 2 2 2 2 2 2 2 2 2 2 2 2 2 2 2 2 2 2 2 2 2 2 2 2 2 2 2 2 2 2 2 2 2 2 2 2 3 3 3 3 3 3 3 3 3 3 3 3 3 3 3 3 3 3 3 3 3 3 3 3 2 2 2 2 2 2 2 2 2 2 2 2 2 2 2 2 2 2 2 2 2 2 2 2 2 2 2 2 2 2 3 3 3 3 3 3 3 3 3 3 3 3 3 3 3 3 3 3 3 3 3 3 3 3 3 3 3 3 2 2 2 2 2 2 2 2 2 2 2 2 2 2 2 2 2 2 2 2 2 2 2 2 2 2 2 2 2 2 2 2 2 2 2 2 3 3 3 3 3 3 3 3 3 3 3 3 3 3 3 3 3 3 3 3 3 3 3 3 3 3 3 2 2 2 2 2 2 2 2 2 2 2 2 2 2 2 2 2 2 2 2 2 2 2 2 2 2 2 2 2 2 2 2 2 2 2 2 2 2 2 2 3 3 3 3 3 3 3 3 3 3 3 3 3 3 3 3 3 3 3 3 3 2 2 2 2 2 2 2 2 2 2 2 2 2 2 2 2 2 2 2 2 2 2 2 2 2 2 2 3 3 3 3 3 3 3 3 3 3 3 3 3 3 3 3 3 3 3 3 3 3 3 3 2 2 2 2 2 2 2 2 2 2 2 2 2 2 2 2 2 2 2 2 2 2 2 2 2 2 2 2 2 2 2 2 2 2 3 3 3 3 3 3 3 3 3 3 3 3 3 3 3 3 3 3 3 3 3 3 3 3 2 2 2 2 2 2 2 2 2 2 2 2 2 2 2 2 2 2 2 2 2 2 2 2 2 2 2 2 2 2 2 3 3 3 3 3 3 3 3 3 3 3 3 3 3 3 3 3 3 3 3 3 3 2 2 2 2 2 2 2 2 2 2 2 2 2 2 2 2 2 2 2 2 2 2 2 2 2 3 3 3 3 3 3 3 3 3 3 3 3 3 3 3 2 2 2 2 2 2 2 2 2 2 2 2 2 2 2 2 2 3 3 3 3 3 3 3 3 3 3 3 3 3 3 3 3 3 3 3 3 2 2 2 2 2 2 2 2 2 2 2 2 2 2 2 2 2 2 2 3 3 3 3 3 3 3 3 3 3 3 3 3 3 3 2 2 2 2 2 2 2 2 2 2 3 3 3 3 3 3 3 3 3 3 3 3 3 2 2 2 2 2 2 2 2 2 3 3 3 3 3 3 3 3 3 3 3 3 3 3 3 2 2 2 2 2 2 2 2 2 2 2 3 3 3 3 3 3 3 3 3 3 2 3 3 3 3 3 3 3 3 3 3 3 
</DataArray>
<DataArray type="Float32" Name="order" NumberOfComponents="1" format="ascii" >
0 0 0 0 0 0 0 0 0 0 0 0 0 0 0 0 0 0 0 0 0 0 0 0 0 0 0 0 0 0 0 0 0 0 0 0 0 0 0 0 0 0 0 0 0 0 0 0 0 0 0 0 0 0 0 0 0 0 0 0 0 0 0 0 0 0 0 0 0 0 0 0 0 1 1 1 1 1 1 1 1 1 1 1 1 1 1 1 1 1 1 1 1 1 1 1 1 1 1 1 1 1 1 1 1 1 1 1 2 2 2 2 2 2 2 2 2 2 2 2 2 2 2 2 2 2 2 2 2 2 2 2 2 2 2 2 2 2 2 2 2 2 2 2 2 2 2 2 2 2 2 2 2 2 1 1 1 1 1 1 1 1 1 1 1 1 1 1 1 1 1 1 1 1 1 1 1 1 1 1 1 1 1 1 1 1 1 2 2 2 2 2 2 2 2 2 2 2 2 2 2 2 2 2 2 2 2 2 2 2 2 2 2 2 2 2 2 2 2 2 2 2 2 2 2 2 2 2 2 2 2 2 2 2 2 2 2 2 2 2 2 2 2 1 1 1 1 1 1 1 1 1 1 1 1 1 1 1 1 1 1 1 1 1 1 1 1 1 1 1 1 1 1 1 1 1 1 1 1 1 1 2 2 2 2 2 2 2 2 2 2 2 2 2 2 2 2 2 2 2 2 2 2 2 2 2 2 2 2 2 2 2 2 2 2 2 2 2 2 2 2 2 2 2 2 2 2 2 2 2 2 2 2 2 2 2 2 2 2 2 2 2 2 2 2 1 1 1 1 1 1 1 1 1 1 1 1 1 1 1 1 1 1 1 1 1 1 1 1 1 1 1 1 1 1 2 2 2 2 2 2 2 2 2 2 2 2 2 2 2 2 2 2 2 2 2 2 2 2 2 2 2 2 2 2 2 2 2 2 2 2 2 2 2 2 2 2 2 2 2 2 2 2 2 2 2 1 1 1 1 1 1 1 1 1 1 1 1 1 1 1 1 1 1 1 1 1 1 1 1 1 1 1 1 1 1 1 1 1 2 2 2 2 2 2 2 2 2 2 2 2 2 2 2 2 2 2 2 2 2 2 2 2 2 2 2 2 2 2 2 2 2 2 2 2 2 2 2 2 2 2 2 2 2 2 2 2 2 2 2 2 2 2 2 2 2 2 1 1 1 1 1 1 1 1 1 1 1 1 1 1 1 1 1 1 1 1 1 1 1 1 1 1 1 1 1 1 1 1 1 2 2 2 2 2 2 2 2 2 2 2 2 2 2 2 2 2 2 2 2 2 2 2 2 2 2 2 2 2 2 2 2 2 2 2 2 2 2 2 2 2 2 2 2 2 2 2 2 2 1 1 1 1 1 1 1 1 1 1 1 1 1 1 1 1 1 1 1 1 1 1 1 1 1 1 1 1 1 1 1 1 2 2 2 2 2 2 2 2 2 2 2 2 2 2 2 2 2 2 2 2 2 2 2 2 2 2 2 2 2 2 2 2 2 2 2 2 2 2 2 2 2 2 2 2 2 2 2 2 1 1 1 1 1 1 1 1 1 1 1 1 1 1 1 1 1 1 1 1 1 1 1 1 1 1 1 1 1 1 1 2 2 2 2 2 2 2 2 2 2 2 2 2 2 2 2 2 2 2 2 2 2 2 2 2 2 2 2 2 2 2 2 2 2 2 2 2 2 2 2 2 2 2 2 2 2 2 2 2 2 1 1 1 1 1 1 1 1 1 1 1 1 1 1 1 1 1 1 1 1 1 1 1 1 1 1 1 1 1 2 2 2 2 2 2 2 2 2 2 2 2 2 2 2 2 2 2 2 2 2 2 2 2 2 2 2 2 2 2 2 2 2 2 2 2 2 2 2 2 2 2 2 2 2 2 2 2 2 2 2 2 2 2 2 2 2 2 2 1 1 1 1 1 1 1 1 1 1 1 1 1 1 1 1 1 1 1 1 1 1 1 1 1 1 1 1 1 1 1 1 1 2 2 2 2 2 2 2 2 2 2 2 2 2 2 2 2 2 2 2 2 2 2 2 2 2 2 2 2 2 2 2 2 2 2 2 2 2 2 2 2 2 2 2 2 2 2 2 2 2 2 2 1 1 1 1 1 1 1 1 1 1 1 1 1 1 1 1 1 1 1 1 1 1 1 1 1 1 1 1 1 1 2 2 2 2 2 2 2 2 2 2 2 2 2 2 2 2 2 2 2 2 2 2 2 2 2 2 2 2 2 2 2 2 2 2 2 2 2 2 2 2 2 2 2 2 2 2 2 2 2 2 1 1 1 1 1 1 1 1 1 1 1 1 1 1 1 1 1 1 1 1 1 1 1 1 1 1 1 1 1 2 2 2 2 2 2 2 2 2 2 2 2 2 2 2 2 2 2 2 2 2 2 2 2 2 2 2 2 2 2 2 2 2 2 2 2 2 2 2 1 1 1 1 1 1 1 1 1 1 1 1 1 1 1 1 1 1 1 1 1 1 1 1 1 1 1 1 1 1 1 1 2 2 2 2 2 2 2 2 2 2 2 2 2 2 2 2 2 2 2 2 2 2 2 2 2 2 2 2 2 2 2 2 2 2 2 2 2 2 2 2 2 2 2 2 2 2 2 2 2 1 1 1 1 1 1 1 1 1 1 1 1 1 1 1 1 1 1 1 1 1 1 1 1 1 2 2 2 2 2 2 2 2 2 2 2 2 2 2 2 2 2 2 2 2 2 2 2 2 2 2 2 2 2 2 2 2 2 2 2 2 2 2 2 1 1 1 1 1 1 1 1 1 1 1 1 1 1 1 1 1 1 1 1 1 1 1 1 1 1 1 1 1 1 1 1 1 2 2 2 2 2 2 2 2 2 2 2 2 2 2 2 2 2 2 2 2 2 2 2 2 2 2 2 2 2 2 2 2 2 2 2 2 2 2 2 2 2 2 2 2 2 2 2 1 1 1 1 1 1 1 1 1 1 1 1 1 1 1 1 1 1 1 1 1 1 1 1 2 2 2 2 2 2 2 2 2 2 2 2 2 2 2 2 2 2 2 2 2 2 2 2 2 2 2 2 2 2 1 1 1 1 1 1 1 1 1 1 1 1 1 1 1 1 1 1 1 1 1 1 1 1 1 1 1 1 2 2 2 2 2 2 2 2 2 2 2 2 2 2 2 2 2 2 2 2 2 2 2 2 2 2 2 2 2 2 2 2 2 2 2 2 1 1 1 1 1 1 1 1 1 1 1 1 1 1 1 1 1 1 1 1 1 1 1 1 1 1 1 2 2 2 2 2 2 2 2 2 2 2 2 2 2 2 2 2 2 2 2 2 2 2 2 2 2 2 2 2 2 2 2 2 2 2 2 2 2 2 2 1 1 1 1 1 1 1 1 1 1 1 1 1 1 1 1 1 1 1 1 1 2 2 2 2 2 2 2 2 2 2 2 2 2 2 2 2 2 2 2 2 2 2 2 2 2 2 2 1 1 1 1 1 1 1 1 1 1 1 1 1 1 1 1 1 1 1 1 1 1 1 1 2 2 2 2 2 2 2 2 2 2 2 2 2 2 2 2 2 2 2 2 2 2 2 2 2 2 2 2 2 2 2 2 2 2 1 1 1 1 1 1 1 1 1 1 1 1 1 1 1 1 1 1 1 1 1 1 1 1 2 2 2 2 2 2 2 2 2 2 2 2 2 2 2 2 2 2 2 2 2 2 2 2 2 2 2 2 2 2 2 1 1 1 1 1 1 1 1 1 1 1 1 1 1 1 1 1 1 1 1 1 1 2 2 2 2 2 2 2 2 2 2 2 2 2 2 2 2 2 2 2 2 2 2 2 2 2 1 1 1 1 1 1 1 1 1 1 1 1 1 1 1 2 2 2 2 2 2 2 2 2 2 2 2 2 2 2 2 2 1 1 1 1 1 1 1 1 1 1 1 1 1 1 1 1 1 1 1 1 2 2 2 2 2 2 2 2 2 2 2 2 2 2 2 2 2 2 2 1 1 1 1 1 1 1 1 1 1 1 1 1 1 1 2 2 2 2 2 2 2 2 2 2 1 1 1 1 1 1 1 1 1 1 1 1 1 2 2 2 2 2 2 2 2 2 1 1 1 1 1 1 1 1 1 1 1 1 1 1 1 2 2 2 2 2 2 2 2 2 2 2 1 1 1 1 1 1 1 1 1 1 2 1 1 1 1 1 1 1 1 1 1 1 
</DataArray>
<DataArray type="Float32" Name="radius" NumberOfComponents="1" format="ascii" >