<?xml version="1.0"?><VTKFile type="PolyData" version="0.1" byte_order="LittleEndian">
<PolyData>
<Piece NumberOfLines="13013" NumberOfPoints="13256">
<CellData Scalars=" CellData">
<DataArray type="Float32" Name="time" NumberOfComponents="1" format="ascii" >
0.846687 1.30652 2.05822 2.89342 3.70392 4.59097 4.6691 5.56697 5.58232 6.49057 6.50529 7.42413 7.42448 8.32705 9.26048 10.1166 11.0781 11.1502 11.9415 12.9253 13.0417 13.9297 14.9385 14.9427 15.9644 16.1257 17.0387 18.0224 19.0845 19.1483 20.2255 20.2629 21.2756 22.314 23.366 24.3645 25.5149 25.5435 26.6054 27.7611 28.8219 30.0388 30.1938 31.4319 31.4341 32.6916 32.9021 33.8264 35.1224 35.2375 36.5568 36.61 37.9224 39.1558 40.5419 40.6634 42.0131 43.4501 43.7662 45.2354 45.3523 46.6361 47.817 49.3633 49.5513 51.1318 51.1826 52.5279 54.1689 54.2443 55.9213 56.0323 57.7476 57.9005 59.6568 59.8121 60 15.8131 16.4962 17.2564 18.0542 18.0967 18.9145 19.7403 20.6281 21.5585 22.543 22.6675 23.707 23.7749 24.8725 24.8959 26.0557 26.0651 27.1201 28.3842 29.7617 29.8668 31.2619 32.8507 32.9269 34.5968 36.4732 36.5808 38.4728 40.7532 40.8095 42.8295 45.676 45.7607 49.0715 49.6212 53.6728 53.6867 58.6605 60 16.9633 17.9337 18.9153 19.9884 21.1144 21.1597 22.1779 23.3947 24.4303 25.6494 26.9603 28.4113 28.5193 29.9539 31.5725 31.8117 33.14 34.959 35.0552 36.8428 38.9274 38.9689 41.2238 41.2302 43.6822 43.8336 46.4131 49.3881 49.676 51.96 55.6271 55.9169 60 17.741 18.2266 19.0277 19.0612 19.8935 19.8981 20.763 20.7721 21.5392 22.4716 22.5576 23.4333 24.4227 25.4101 26.3917 27.4928 28.719 28.8446 30.0506 31.4226 32.8935 33.2529 34.8545 34.9221 36.6533 36.8422 38.7361 38.9146 40.7547 43.0317 43.4121 45.9951 46.0035 48.9272 49.3707 52.8104 52.9971 57.1047 57.3987 60 18.794 19.6652 19.7548 20.6603 20.6981 21.6385 21.7033 22.6394 23.6561 23.7699 24.7808 25.8889 25.9193 26.9341 28.1428 28.3041 29.5815 29.7798 31.1358 31.1429 32.531 34.047 34.1777 35.7172 37.4431 37.6188 39.4745 41.487 41.6495 43.8501 44.0336 46.4617 46.7305 49.4459 49.7145 52.587 55.6696 59.625 59.6456 60 20.1244 21.1773 21.4755 22.5767 22.7158 23.844 24.8966 26.1033 27.3431 28.4903 29.881 29.957 31.4174 31.447 32.9549 34.5694 34.9936 36.7222 36.7501 38.5836 38.817 40.7826 41.4006 43.545 43.6428 45.9562 46.2122 48.7363 48.954 51.4985 54.5214 54.5792 57.536 60 21.0707 21.7576 22.6818 22.7789 23.6932 24.615 25.65 25.6991 26.7795 26.7988 27.7801 28.9536 29.1209 30.2671 31.5626 31.7178 33.0904 33.2058 34.6624 34.6899 36.2356 36.3741 38.0241 39.732 41.5709 43.6094 43.7769 46.0059 46.1298 48.3355 50.8916 53.6523 56.9935 57.2764 60 22.0436 22.8029 22.8232 23.4928 24.3053 25.1534 25.2192 26.1062 26.2492 27.0789 27.9768 28.9922 29.0082 30.0473 31.0028 32.0851 33.3285 33.3349 34.6384 35.8175 37.3135 37.3523 38.9081 40.483 42.3458 43.8731 46.0939 48.0177 50.7512 53.7778 57.5091 57.5791 60 23.2875 23.7517 24.5818 25.3671 26.3451 26.5424 27.5328 28.5996 28.6286 29.7434 29.846 30.892 32.113 32.2218 33.51 33.6824 34.838 36.2698 36.3026 37.8218 37.8277 39.4437 39.4672 41.1945 41.2826 43.1426 43.2366 45.251 45.4554 47.6616 47.9472 50.3916 50.5085 53.1805 56.2178 56.3901 59.8649 59.8809 60 24.4239 25.3707 25.7692 26.7638 26.836 27.7606 28.8305 28.8807 29.9955 30.2638 31.4366 31.6535 32.6735 33.955 34.0761 35.4255 35.4999 36.8376 38.247 39.7622 41.3309 43.0957 43.3922 45.2976 45.4317 47.4876 47.5872 49.8157 49.9674 52.404 52.7243 55.4277 55.6758 58.4251 60 25.4912 26.2139 27.1042 28.0516 28.0678 29.0548 29.0987 29.926 30.9945 31.1272 32.252 32.3492 33.3942 34.4722 35.7703 35.8976 37.0597 38.2935 39.8236 39.9292 41.4323 43.0343 44.425 46.421 46.7228 48.7984 51.2152 51.5407 53.6753 56.2985 59.6698 59.8465 60 26.5147 27.3811 27.5279 28.4303 28.5019 29.4404 29.5547 30.3937 31.3164 32.3676 32.4943 33.5967 33.6754 34.8317 34.9152 36.131 36.136 37.4134 37.4898 38.8394 39.0195 40.4556 40.5043 41.9645 43.5836 43.7285 45.2143 47.0637 47.0638 49.0591 49.3136 51.4954 53.8913 54.1432 56.7201 59.3785 60 27.7734 28.5738 29.4602 30.1342 31.0087 31.9248 32.9552 33.1747 34.2595 34.3496 35.4884 35.5494 36.7462 36.7706 37.9305 39.1763 40.5673 40.6689 42.0608 43.5009 45.1667 45.5105 47.1636 49.1056 49.3132 51.2949 53.6066 53.6322 56.1851 56.2936 59.1536 59.3171 60 28.7014 29.374 30.0843 30.9662 31.0797 31.98 32.8735 33.8124 34.8329 35.9176 35.9998 37.1413 37.1615 38.3625 38.4298 39.6995 39.8681 41.2205 41.3305 42.7728 42.8911 44.3878 46.0072 47.6542 49.5619 49.612 51.6935 51.7397 54.0291 54.2453 56.4544 59.2861 59.5765 60 30.0592 30.834 31.697 32.6004 32.622 33.404 34.3749 34.4873 35.3462 36.4001 36.4263 37.5295 37.5465 38.7033 38.7913 40.0109 40.0698 41.3135 42.6712 42.8813 44.3115 45.8543 46.0126 47.6434 49.3449 50.9649 52.7538 54.9725 55.1567 57.6197 57.7455 60 31.2465 32.1908 32.254 33.234 33.2563 34.2317 35.2857 35.5342 36.6401 36.7793 37.8716 38.9893 40.2368 41.5526 41.8659 43.1953 44.6409 45.9444 47.5708 47.6841 49.4195 49.4488 51.3024 51.5272 53.5308 53.8247 56.009 56.092 58.4711 58.6974 60 32.4954 33.3579 34.3392 34.3613 35.3066 36.3247 37.365 38.3671 39.5362 40.6811 41.9816 42.0741 43.4463 43.492 44.7997 46.2626 47.8764 47.9184 49.5434 51.2911 53.2538 53.2988 55.3937 57.2026 59.5655 60 33.7257 34.2802 34.9327 35.69 35.7012 36.4887 36.5158 37.3317 38.1874 38.254 39.0119 39.908 40.6967 41.6687 42.7365 42.7729 43.9029 43.9259 45.1248 45.194 46.4737 46.5519 47.9244 48.1889 49.6349 51.2449 51.3535 52.9088 54.7408 56.8428 57.0138 59.3836 59.7786 60 35.0712 36.0067 36.0321 37.0025 37.0052 37.9892 38.9307 39.9986 41.1277 41.2294 42.4129 42.5901 43.837 43.8434 45.1517 45.2434 46.624 46.6586 47.8471 49.3732 49.6584 51.295 51.427 52.96 54.8197 54.8999 56.9051 57.005 58.7591 60 36.1945 37.0292 37.2214 37.9097 38.6282 39.5538 39.6299 40.5115 41.5142 41.6009 42.5663 43.6608 43.6749 44.7085 45.8924 47.0316 48.3564 48.3706 49.7737 49.8804 51.3776 51.5413 53.0742 54.7627 56.4722 58.4632 58.515 60 37.6101 38.3852 39.264 39.3386 40.1695 41.082 42.0679 42.0969 43.0306 44.1023 44.1662 45.2913 45.3624 46.5466 46.7731 48.0313 48.176 49.4499 50.8618 50.8897 52.3632 53.9111 55.6234 55.7187 57.3535 59.3426 59.3632 60 39.2834 40.4109 41.5912 41.6051 42.8296 42.9174 44.1923 44.4308 45.7506 47.0739 48.2953 49.752 51.225 52.8728 53.1891 54.9402 55.0534 56.9089 57.0105 58.9824 59.1762 60 40.4001 41.3829 41.5791 42.6047 42.6637 43.7302 43.7704 44.8392 45.9206 47.1205 47.2571 48.1845 49.4871 49.6512 50.9904 52.3531 53.7005 55.2926 55.5628 57.2669 57.2787 59.0932 59.1007 60 41.6675 42.6113 42.8151 43.8013 43.963 44.9418 46.0116 46.0734 47.091 48.2398 49.3736 50.6417 50.8547 52.1311 53.286 54.7602 54.933 56.4666 57.8148 59.5714 59.7993 60 43.0185 43.9099 44.8478 45.7314 46.6494 47.7568 47.8323 48.9537 50.1597 50.1874 51.4499 51.5938 52.924 53.0087 54.4107 54.444 55.9176 57.48 57.5568 59.1001 60 44.0065 44.5984 45.299 45.9319 46.6862 46.7016 47.3574 48.1145 48.9595 49.0144 49.9 50.0228 50.8946 51.8715 51.9604 52.9341 53.9036 54.8577 56.0214 57.2972 58.5211 59.9795 60 45.7484 46.6832 46.9625 47.9407 47.951 48.86 49.9075 50.9999 51.0474 52.1876 52.3713 53.5696 53.6069 54.7618 55.9718 57.1428 58.532 59.9964 60 47.2142 47.8395 48.916 48.9961 50.0593 51.2245 51.3161 52.4996 53.4528 54.6196 55.9705 57.2344 58.6244 60 48.6789 49.5569 50.6253 50.7157 51.7211 52.8338 53.9293 55.0845 56.3811 56.4973 57.8599 57.9989 59.2251 60 49.8367 50.6442 51.346 52.2229 52.4159 53.2574 54.1844 55.1619 56.1504 57.2267 57.3213 58.328 59.5094 59.5852 60 51.7371 52.5524 53.4441 54.3428 55.2891 56.3848 56.4605 57.5183 58.6183 59.8502 60 53.3887 54.3905 54.5355 55.5355 56.6184 56.655 57.7829 57.8922 58.997 60 55.1145 55.7806 56.6132 56.6931 57.5614 57.6278 58.5048 59.2977 60 56.4275 57.3405 57.4658 58.4168 58.4678 59.4307 60 58.3871 59.2007 60 59.9768 60 0.577222 1.15118 1.74716 1.80956 2.41654 2.43758 2.94565 3.53353 4.17029 4.19598 4.84457 4.9062 5.56773 5.64543 6.25457 6.93576 7.59552 8.30842 8.3174 9.04476 9.1787 9.89211 10.6521 10.7219 11.4612 12.187 12.9359 13.7092 14.5544 14.6193 15.4862 15.5233 16.3914 17.3022 17.3152 18.2498 18.3527 19.2921 20.2797 20.3647 21.3543 22.4005 22.4523 23.4889 24.5972 25.7427 25.8453 26.9253 27.8862 29.1424 29.1552 30.3643 31.5872 32.9808 33.1829 34.6404 34.9602 36.487 37.862 39.5247 39.7831 41.5383 41.5422 43.2499 45.0845 47.1236 47.1907 49.3554 49.3785 51.682 52.0419 54.5269 57.1947 58 12.3613 13.3513 13.4897 14.5215 14.6351 15.7033 16.8225 16.8701 18.0384 18.122 19.2422 20.4036 21.5181 22.864 24.3211 24.4645 25.9665 27.2846 29.0001 30.8021 32.6313 34.6466 36.843 38.9991 41.2802 44.1816 44.29 47.5436 47.7807 51.5005 51.5508 55.4827 58 13.1033 13.9551 13.9627 14.7134 15.6266 15.7472 16.6055 17.5968 17.6037 18.6056 19.6603 20.7924 20.8175 22.0081 22.0663 23.2822 24.5039 25.6555 27.1263 27.1799 28.7525 28.7955 30.3427 32.1503 32.1711 34.1308 34.1605 36.1563 38.3409 40.4288 43.2632 43.2942 46.5217 46.8671 50.3105 54.4896 58 14.1028 15.1204 15.2985 16.1378 17.2357 17.3478 18.3991 19.5223 20.6499 21.9495 22.0743 23.3473 24.5345 25.9653 27.414 28.9864 30.5448 32.1234 34.019 36.1716 36.4099 38.3394 40.5671 42.7936 45.7861 49.171 49.21 52.8436 57.3112 57.3991 58 14.7367 15.6999 15.9119 16.9087 17.9188 18.9995 19.1011 20.2291 20.31 21.1 22.3127 22.345 23.6137 23.7579 25.0935 25.2865 26.6984 26.8464 28.3409 28.4013 29.983 30.2077 31.8725 33.6685 33.6915 35.18 37.051 39.2238 39.3512 41.6752 44.2402 47.0775 47.0951 50.1733 53.7195 53.8715 57.9529 58 15.5189 16.2572 17.2359 17.2667 18.284 18.3184 19.3778 19.4125 20.4537 21.6038 21.7395 22.948 22.9639 23.9415 25.1229 26.5 26.5501 27.9519 29.1213 30.5455 32.245 32.2578 34.0366 35.9841 36.3449 38.4766 38.4936 40.8131 40.9624 43.5193 43.6295 46.0894 49.1908 52.1204 55.8866 58 16.4637 17.3519 18.3789 18.4837 19.5529 19.7601 20.7806 21.941 22.1419 23.2497 24.517 24.6052 25.891 27.2125 28.673 28.7642 30.1786 31.8032 31.9009 33.4126 35.2153 37.1083 39.1946 39.2305 41.4838 41.5603 43.8485 46.5082 49.4486 49.5225 52.8089 53.7842 57.6353 57.9583 58 17.5482 18.6585 18.6604 19.7511 20.8154 22.0484 22.1058 23.3866 24.6767 26.0725 26.1822 27.6118 29.146 29.2598 30.8778 30.9601 32.4372 34.2302 34.5825 36.1914 38.2166 38.5937 40.7836 40.8495 43.2066 43.3119 45.8668 46.2937 49.0245 52.1077 52.5595 56.026 56.5436 58 18.6054 19.6813 20.8447 22.0776 22.1012 23.1866 24.5141 24.6048 25.915 27.0697 28.3896 29.8006 31.4375 31.4535 33.1786 33.2752 35.1033 35.5405 37.5055 37.803 39.4619 41.6893 41.7263 43.8554 46.2112 48.9789 49.2863 52.3438 53.1329 56.2423 58 19.1079 19.625 20.4367 20.5343 21.3477 22.1951 23.0936 24.0441 24.8855 25.9219 26.0775 27.1577 28.3099 28.3434 29.5613 29.6507 30.9455 30.9543 32.3307 32.4128 33.8868 34.0968 35.681 37.4008 37.4455 39.3152 39.4355 41.2254 43.3921 45.6684 48.0377 50.8745 54.285 58 20.1067 20.7405 21.6046 21.6188 22.3039 23.1515 24.1149 24.1446 25.1419 26.159 27.1727 28.2234 29.3945 30.5504 31.7534 33.1771 33.2548 34.7795 34.7806 36.4157 36.5364 38.197 39.85 41.5932 43.5147 45.6039 48.3047 48.6103 51.6557 55.2543 55.5475 58 21.0932 21.7445 22.662 22.7187 23.5905 24.5759 24.6251 25.6481 26.7152 26.7574 27.8714 27.9254 29.0383 30.2555 30.4028 31.6864 31.8167 33.1436 34.5719 34.8447 36.3711 36.5724 38.2057 38.2661 40.0116 40.0155 41.8722 43.8839 43.9498 46.1337 46.3117 48.6637 51.145 54.0543 54.5256 57.8598 58 22.0896 22.9542 23.2773 24.1212 25.0619 25.0859 25.9099 26.8851 27.9403 28.0156 29.0719 30.2279 30.2303 31.4436 31.5189 32.7993 33.1456 34.2933 35.3797 36.8853 36.9096 38.5153 38.7208 40.4539 40.5252 42.365 44.3477 46.5482 46.6169 49.0415 49.3733 52.1029 52.1341 54.9253 58 23.5244 24.5147 25.6199 25.6817 26.7701 27.9614 28.0237 29.2658 29.4322 30.7339 30.7675 32.1285 32.2218 33.6505 33.6826 35.104 36.6627 38.1609 39.8399 41.684 41.7572 43.6054 45.4934 47.5036 49.8925 50.0605 52.6662 53.013 55.895 56.2841 58 24.4686 25.4449 25.7668 26.7899 26.8576 27.9219 28.0766 29.1888 29.2418 30.3884 31.5978 31.6007 32.8539 34.1765 34.3152 35.7099 35.717 36.9479 38.4829 38.5306 40.1569 40.1851 41.9128 42.0958 43.5418 45.3959 47.4763 49.7349 50.0712 52.4466 55.1624 55.5001 58 25.627 26.422 27.3596 28.3467 28.4158 29.4461 29.4549 30.4543 31.4987 32.5744 33.7947 33.8163 34.98 36.3262 36.5335 37.926 39.2501 40.8537 41.1488 42.6584 44.4881 45.9592 47.7978 49.9984 52.1413 54.8799 55.3969 58 26.698 27.3803 28.3005 28.3143 29.2691 29.2703 30.2557 31.2867 31.4193 32.4989 32.583 33.7136 33.7611 34.9458 35.0338 36.28 36.3791 37.6026 38.983 39.078 40.5421 40.6629 42.1326 43.6988 45.4605 45.4737 47.3657 47.4552 49.5047 49.5546 51.6968 54.1308 54.4082 57.127 57.2112 58 27.8309 28.778 29.1687 30.1526 31.1043 32.0176 33.0902 34.0556 35.1525 36.2713 37.4807 38.6321 40.0629 40.248 41.7705 42.0962 43.7309 43.893 45.6034 47.2922 49.1191 51.0687 53.3689 55.7809 58 28.8399 29.6621 29.9878 30.8521 30.8894 31.7711 32.7053 32.7419 33.6659 34.6268 35.6852 35.6898 36.7986 36.874 37.9681 39.1934 39.282 40.5802 40.738 42.0646 43.5248 44.8924 46.5554 46.5774 48.2593 50.1908 50.3317 52.0885 54.3812 54.4653 57.0172 57.2529 58 30.2432 31.2978 31.409 32.5067 32.5877 33.7308 33.8553 34.9644 36.205 36.272 37.5623 38.9192 39.0246 40.2687 41.625 43.1692 44.6473 46.3691 48.0934 49.778 51.8516 51.9498 53.6869 55.9991 58 31.4616 32.2562 32.931 33.8217 34.7722 34.8428 35.8349 35.8693 36.8622 37.8714 38.9978 39.0054 40.1151 41.0871 42.309 43.6667 43.7634 45.1144 46.6431 47.0217 48.6791 48.7389 50.5219 50.704 52.52 54.3677 56.3467 58 33.0351 33.4648 34.4356 35.5142 35.5875 36.6439 37.8112 37.8374 39.0457 40.318 40.4216 41.7584 41.8337 43.2401 43.2444 44.7241 44.7822 46.3461 46.5247 48.1903 48.5189 50.309 50.404 52.3208 52.5823 54.6571 54.7619 56.889 58 34.4257 35.2972 36.2744 37.3599 38.3272 39.381 40.5734 41.8535 42.0372 43.3831 43.4824 44.8967 44.9507 46.3044 47.8627 47.9304 49.5784 49.611 51.3331 53.1864 53.292 55.2753 55.4909 57.6314 58 35.7263 36.5685 36.6904 37.566 37.762 38.6763 38.8174 39.7715 39.8196 40.7639 41.7275 42.8007 42.8321 43.8615 45.0316 45.0519 46.2799 46.2936 47.4473 48.8009 49.0331 50.477 50.7679 52.3177 52.4122 54.0699 54.1857 55.7805 57.684 57.9149 58 37.5733 38.3546 39.349 40.4075 40.4553 41.4775 42.6179 42.7417 43.8959 45.088 46.3826 46.4137 47.77 47.8092 49.2338 49.2975 50.7988 51.0156 52.6108 52.6633 54.226 55.6778 57.5592 57.572 58 38.923 39.694 39.8494 40.6544 40.6763 41.4701 42.1535 42.8753 43.8024 43.8029 44.7711 44.8187 45.834 45.8933 46.756 47.8248 48.994 49.0705 50.3102 50.5034 51.7476 53.0049 54.4977 54.5207 56.1247 56.2137 57.9211 58 40.881 41.4661 42.2788 43.108 43.8913 44.9164 44.9607 46.0012 47.1154 47.1204 48.0845 49.2902 50.5596 50.7257 51.7255 53.1239 53.3421 54.5389 56.1032 56.1947 57.8659 57.9838 58 42.4488 43.2048 43.3481 44.0359 44.8508 44.9042 45.7532 45.7615 46.6458 46.7515 47.5234 48.3706 49.3713 49.4518 50.4921 51.599 51.6181 52.7481 53.8221 55.1198 55.1308 56.3651 57.7651 58 45.0382 46.4595 46.4745 47.9479 48.0227 49.3595 50.8844 52.5304 52.7255 54.4496 54.7403 56.5542 56.6234 58 46.3612 47.0992 47.913 48.8167 48.8372 49.6504 50.6254 50.644 51.6623 51.712 52.649 53.6682 54.777 55.9978 56.0416 57.3323 57.4315 58 48.5878 49.6025 49.6347 50.6687 51.7616 51.9078 53.0501 53.0998 54.2919 54.3635 55.6107 55.6421 56.9477 57.0595 58 50.8168 51.6646 51.7172 52.563 53.4753 53.5179 54.3887 55.2934 56.27 57.3363 57.4165 58 53.2561 54.4219 54.6053 55.8191 55.9284 57.1912 57.3843 58 54.8833 55.6107 56.453 57.2426 58 57.5963 58 0.681206 0.989208 1.65705 2.35997 3.08037 3.26525 4.00128 4.08587 4.83636 4.94513 5.69818 6.42431 7.21761 7.34172 8.08766 8.74593 9.47671 10.1287 10.9262 11.7172 12.6168 12.7388 13.6605 13.7073 14.6016 15.5649 15.6051 16.5917 16.6246 17.6354 17.8968 18.9387 19.1156 20.1882 20.418 21.5243 21.6364 22.6595 23.8266 23.9417 25.0408 26.187 27.4565 27.5971 28.91 28.9204 30.2437 31.6423 31.6582 32.9794 34.3338 35.8762 35.9962 37.6012 37.9757 39.6587 39.8206 41.5797 41.639 43.4766 43.5866 45.5123 45.8331 47.8016 49.6856 51.9161 51.9354 53.9859 56.063 58 13.5952 14.5156 14.5454 15.5001 15.6691 16.6659 16.6674 17.7034 17.7396 18.6368 19.6207 20.7818 20.8169 22.0329 22.1398 23.4196 23.5026 24.8518 24.944 26.2492 27.7503 27.9489 29.5526 29.5644 31.2725 31.3484 33.1798 33.4163 35.4024 35.459 37.5692 39.8536 42.4141 42.4558 45.2751 48.2645 51.8507 52.1083 56.1662 58 14.6478 15.7458 15.8378 16.9799 17.0422 18.1937 19.3061 20.5659 21.5549 22.6179 24.0477 24.1332 25.504 27.0425 28.699 28.8329 30.5915 30.7422 32.4229 34.4059 34.5032 36.6207 38.9041 39.0433 41.5212 41.6073 44.3099 44.3171 47.2805 47.4676 50.3705 54.0131 58 15.4241 16.3581 16.6393 17.6062 18.59 19.536 20.6226 20.6884 21.8222 21.8859 23.0333 24.2697 24.3254 25.5908 26.8364 28.2597 28.2669 29.7678 30.0764 31.6817 31.831 33.5447 33.5829 35.4125 35.4346 37.0854 39.1714 39.415 41.5195 43.8686 46.5274 49.5089 49.7289 53.0993 53.5154 57.4165 57.6171 58 16.6039 17.4951 18.3558 19.1766 20.1773 20.4067 21.3584 22.4485 22.4501 23.5881 23.6027 24.681 25.8621 27.1639 27.3604 28.5639 29.9641 31.4951 31.7485 33.2849 35.0318 35.1668 37.0499 37.246 39.2922 39.3611 41.5886 41.7812 44.2366 44.2425 46.9551 47.09 49.7895 53.1592 56.6517 58 17.6683 18.4474 19.32 20.2366 20.9984 21.9903 22.2493 23.294 23.4381 24.5357 24.5711 25.6257 26.8277 26.8858 28.1257 29.4598 29.4781 30.8739 32.3704 32.39 33.9009 35.4543 37.0186 38.9564 39.0393 41.1503 41.2275 43.5442 43.6579 46.2279 46.3171 48.9252 52.1501 52.6341 55.6153 58 19.0009 19.56 20.618 20.8131 21.9165 21.9171 23.0623 23.2238 24.4206 24.6228 25.8775 26.1465 27.3792 28.5397 29.9719 30.1595 31.6655 33.2576 33.3425 35.0279 35.215 37.0113 37.0401 38.903 40.9054 43.0869 43.1388 45.3405 47.8812 48.3573 51.177 51.3355 54.4624 54.964 58 20.0386 21.0335 21.9645 23.0839 23.2032 24.3699 24.3924 25.6064 25.6644 26.9225 28.0035 29.3736 29.4246 30.8409 32.3478 32.5558 34.1522 34.3391 36.0179 37.7032 39.6025 39.7293 41.7634 41.888 44.0768 44.2945 46.588 49.1572 49.5221 52.2737 55.1448 58 20.9184 21.8488 21.9422 22.9107 22.9375 23.9445 23.996 25.0457 25.1923 26.0904 27.2303 27.2634 28.363 29.5756 30.7131 31.9108 33.345 33.3941 34.7788 36.2603 37.9647 38.0927 39.9262 40.0204 42.0006 42.2532 44.3005 46.6468 49.232 49.2691 52.1447 52.1608 55.3969 55.7838 58 22.3403 23.4285 23.6615 24.5867 25.7568 25.7776 26.95 28.2131 28.4813 29.8086 30.0323 31.4281 31.4749 32.9177 34.4506 34.7514 36.3538 37.9829 39.7909 39.9509 41.6518 43.2967 45.3857 47.6903 47.7428 50.0503 52.6608 55.5925 56.025 58 23.2685 24.0367 24.9413 25.9744 26.0188 27.0923 27.1679 28.2864 28.4029 29.5527 30.5805 31.7296 33.046 33.2837 34.6755 34.9254 36.4016 36.4744 38.0352 38.4644 40.141 40.3823 42.179 42.505 44.445 44.7169 46.8189 46.8703 49.1377 51.6069 52.0738 54.7442 57.7778 57.8779 58 24.1905 25.034 25.842 26.879 26.9298 28.0053 29.1031 30.1991 31.4217 31.438 32.7194 32.7631 33.9287 35.1453 36.5503 38.0691 39.718 39.8021 41.5639 41.771 43.6077 45.5881 47.7883 47.8233 50.2219 50.4425 53.0977 53.3712 56.3478 56.5039 58 25.0974 25.9424 26.1153 26.998 27.0594 27.9579 28.9131 28.9888 29.9873 30.018 31.0617 31.0765 32.1412 33.2847 33.3651 34.5706 34.6009 35.8573 37.1999 37.2729 38.6519 40.1674 40.4345 42.0722 42.2045 43.6471 45.2582 47.0486 49.2365 49.3438 51.7651 51.8243 54.5277 54.8695 57.9674 58 25.9625 26.7431 26.7857 27.5243 28.2837 29.1378 30.0371 30.9739 31.1429 32.1273 32.2819 33.318 33.455 34.3856 35.4888 36.6858 36.7114 37.9764 38.1586 39.5084 40.9441 41.0052 42.4605 44.07 45.837 45.9611 47.8879 47.9993 50.1152 50.4131 52.7785 52.9353 55.554 58 27.4678 28.5435 29.6165 30.8555 30.8933 32.0969 33.387 34.7812 34.8656 36.1601 37.6734 39.1061 40.5482 42.2944 42.4342 44.2874 44.362 46.3317 46.4284 48.3945 50.6328 50.9966 52.9732 55.5629 55.9585 58 28.3369 29.2126 29.4309 30.3174 31.2659 31.4516 32.4284 33.4613 33.5781 34.5435 35.5984 36.7728 36.9374 38.1773 38.237 39.4007 40.7712 40.8585 42.3008 43.8434 43.8629 45.4925 46.9771 48.478 50.4033 52.3192 54.5075 57.0589 57.634 58 29.887 30.6406 31.6076 31.6442 32.5088 33.5467 33.6839 34.7691 34.7876 35.9008 36.8742 38.0248 39.3046 39.3272 40.6722 40.8168 42.0188 43.3372 44.9048 45.0397 46.7129 46.7693 48.4196 50.3251 50.621 52.6953 53.0443 55.3226 55.6649 57.9493 58 31.3402 32.2485 33.2214 34.1589 35.1549 36.2693 36.2886 37.3095 38.3311 39.5848 39.7614 40.9047 42.2843 42.5288 43.8691 45.3512 46.9796 47.0509 48.7863 48.9106 50.7713 50.8693 52.4294 54.3717 56.6576 57.0165 58 32.6368 33.57 33.5783 34.4735 35.477 35.5425 36.5893 36.6145 37.6193 38.7558 38.8161 40.0078 40.0531 41.2389 42.4473 43.824 43.8499 45.2819 46.7828 48.2201 49.8941 51.7485 51.8752 53.4914 55.6351 55.7798 57.4282 58 33.949 34.6751 34.7623 35.4724 36.2519 36.2768 37.0862 37.1896 38.0343 38.0538 38.7725 39.682 39.7944 40.7486 40.8918 41.8963 41.9413 42.9965 43.1626 44.2572 45.1664 46.3245 47.6217 47.8426 49.2364 49.5317 50.917 52.5297 52.7639 54.2643 56.1564 56.3716 58 35.5583 36.3044 37.0219 37.859 37.9634 38.8361 38.9389 39.8501 39.9554 40.9086 40.9276 41.9228 42.1439 42.9864 44.0769 44.1875 45.3379 45.6015 46.8267 46.85 48.1454 48.2476 49.5972 51.062 51.1429 52.7129 52.8729 54.5658 56.3976 56.5107 58 37.7683 38.5159 39.2841 40.3806 40.551 41.6686 42.8624 43.0355 44.289 44.5937 45.9191 45.9985 47.3575 48.8207 48.8816 50.2826 51.7284 53.4404 53.4599 54.9518 56.6878 58 39.662 40.6779 40.8182 41.7138 42.6683 43.7973 43.914 45.0936 45.1911 46.3567 47.6423 47.6781 49.025 49.0803 50.4955 50.6002 52.0623 53.5628 55.1409 56.679 58 41.5559 42.3775 42.5076 43.2976 44.1407 45.0552 45.9818 46.9782 47.1758 48.2256 48.3387 49.4432 49.5254 50.6815 51.8682 52.9974 54.33 55.7473 57.1895 58 43.6371 44.4825 45.4359 45.5537 46.3386 47.3629 47.3969 48.3486 49.4558 49.539 50.6985 50.7842 52.0011 52.0924 53.2203 54.5367 55.9449 56.0416 57.5095 58 45.4904 46.2549 47.2321 48.3858 48.3892 49.5883 49.6567 50.7935 52.0929 52.1215 53.4429 54.8628 55.0263 56.5052 58 47.4206 47.8405 48.7036 48.9118 49.8143 49.8615 50.7852 51.7443 52.76 52.8549 53.9189 54.0031 55.0772 56.2449 56.4385 57.6415 58 49.3118 50.093 50.9717 50.9735 51.8855 51.9342 52.7647 53.7484 53.8994 54.9315 55.0361 56.1191 56.2768 57.3435 58 51.3488 51.8951 52.7943 52.9608 53.8507 54.7839 55.7355 56.781 57.8816 57.9338 58 53.9912 54.9632 55.9401 57.0066 57.0147 58 56.3247 57.1009 58 58 0.594692 1.19922 1.25005 1.81781 2.44308 2.46427 3.1008 3.17042 3.72008 4.37907 4.45775 5.13029 5.17008 5.83901 6.45923 7.17 7.23273 7.80302 8.50081 9.22618 9.86272 10.5945 11.3913 11.5009 12.3179 12.3313 13.1674 13.1684 14.0241 14.1013 14.7835 15.6469 16.5633 16.6553 17.5977 17.6358 18.5852 19.5794 19.6746 20.6993 20.7038 21.7161 22.8005 22.8968 23.9475 24.9534 26.1399 26.3403 27.5735 27.5932 28.8702 28.9343 30.215 31.4605 32.6048 34.0732 34.1647 35.6985 35.7942 37.3213 38.9967 39.3289 40.9561 42.8112 42.9937 44.8213 46.4311 48.1753 50.2264 52.5253 55.0959 57.8612 58 12.5051 13.3554 14.303 15.3416 15.3457 16.4249 16.5501 17.67 18.8453 18.9159 20.0702 21.3541 21.3652 22.7119 22.8708 24.2944 24.3096 25.6398 27.217 27.3319 29.0111 29.0282 30.8166 30.9027 32.8204 33.0492 35.1269 35.4329 37.2806 39.7156 39.8821 42.465 45.4271 45.5737 48.9084 49.2321 53.0701 53.2314 57.34 58 13.4359 14.4567 15.5745 16.8132 16.84 18.1303 18.2942 19.5303 20.9377 20.9697 22.4442 22.4481 23.8632 25.4826 25.7264 27.2295 29.036 29.0502 30.8068 32.8197 34.8973 37.1813 39.5956 42.2215 45.1327 48.3866 48.7906 52.0032 55.9887 58 14.3631 15.2594 16.497 17.7948 17.9677 19.2138 20.3172 21.7681 21.8999 23.4195 23.6355 25.2343 25.3443 27.0253 27.1054 28.8756 29.1829 31.0645 31.1031 33.0941 33.4368 35.5697 35.6471 37.7468 40.1319 42.7326 42.9513 45.7797 45.9517 49.0454 49.3568 52.442 55.9918 58 15.1065 15.9835 17.024 17.0336 17.9964 18.9134 19.9477 21.1517 22.3762 23.6844 24.7744 25.9628 27.3181 28.9028 28.9478 30.4582 32.2402 32.5068 34.1551 36.0781 38.06 40.4322 40.6216 43.2359 43.4163 46.3246 46.6856 49.7872 53.4735 57.5547 58 15.6678 16.4854 16.6778 17.4968 18.3231 19.2439 19.2934 20.2552 20.3483 21.252 22.2658 23.3651 23.5704 24.7204 25.9056 27.1104 28.3321 29.7779 29.834 31.3269 32.9644 34.4991 36.4142 36.7108 38.8308 39.191 41.5682 41.5843 43.3546 46.223 49.3216 53.1488 53.2659 57.7408 58 16.88 17.9115 18.1019 19.1775 19.2548 20.3739 20.4268 21.5179 22.7024 23.9625 24.1674 25.4451 26.7236 28.1711 28.2538 29.7191 31.3195 32.9806 34.7602 36.6732 36.8382 38.6975 40.8656 43.0601 45.322 48.0928 48.3418 51.4255 51.8202 55.2387 58 17.6547 18.2675 19.0817 19.9577 20.0315 20.7522 21.5624 22.5401 22.5517 23.5428 24.5599 25.6521 26.8244 27.0031 28.2481 28.4244 29.6613 31.0632 31.0634 32.5115 34.1044 34.1537 35.8686 35.918 37.7629 39.6126 41.808 41.9765 44.4218 44.7712 46.8098 49.8217 53.337 53.6571 57.5849 58 18.6901 19.6277 19.6376 20.6102 20.6193 21.5022 22.5478 22.5513 23.4559 24.5839 24.749 25.8896 27.1297 27.1719 28.3888 29.7558 29.8907 31.3405 31.3911 32.9285 32.9961 34.612 36.121 37.8849 39.7796 41.9191 42.2207 44.1587 46.6281 49.4396 52.4139 55.8655 58 19.4005 20.1624 20.9695 21.0091 21.8471 22.6603 23.4873 24.342 25.3204 25.4685 26.4991 26.624 27.7111 27.8776 29.0297 29.0526 30.0203 31.2221 32.5677 32.7861 34.2334 34.4358 35.8753 37.3535 38.9657 40.6619 42.7569 42.9572 45.2933 45.7191 48.3847 48.4564 51.2074 54.6768 58 20.662 21.3541 22.2858 23.3089 23.3765 24.442 24.4546 25.4297 26.3251 27.5146 27.5533 28.7653 30.0685 30.1488 31.2927 32.7255 32.8556 34.2808 35.8841 36.1331 37.8524 37.9084 39.5343 41.4896 41.6005 43.7154 43.8612 46.0356 48.5406 48.7078 51.4834 51.5453 54.6423 54.6611 58 21.4666 22.428 22.546 23.4365 24.4249 25.4956 25.5279 26.5958 27.7548 27.8245 28.9658 30.1868 31.4345 32.8179 32.9893 34.4359 35.9804 35.9864 37.6215 37.6892 39.4303 39.7729 41.4629 43.4647 44.1718 46.323 48.7215 49.199 51.4017 54.1975 57.4224 57.9352 58 22.4689 23.1128 24.1073 24.1132 25.1445 25.2029 26.2756 26.4063 27.5156 28.6072 29.8211 29.837 31.1065 31.4277 32.6692 34.0766 34.106 35.5892 35.913 37.4976 37.5894 39.2743 39.4627 41.2389 43.1006 45.1641 45.4565 47.5797 50.0155 50.1222 52.8 53.5639 56.61 56.8086 58 23.4007 24.183 25.052 25.9723 26.0619 26.999 27.962 29.0002 29.0578 30.1444 30.147 31.284 31.3008 32.383 33.631 33.6576 34.9167 36.3039 36.4096 37.8862 38.1899 39.781 39.8963 41.4843 43.1611 44.9899 47.11 47.4594 49.8145 49.9663 52.4456 55.3624 55.6153 58 24.2775 25.0109 25.8502 25.9994 26.7737 27.6467 28.5862 28.7329 29.7171 29.814 30.8449 30.9233 31.9565 33.0867 33.2314 34.3272 35.5788 35.7049 36.9878 38.3917 38.656 40.165 40.4656 42.0979 42.2514 44.0154 44.0646 45.8624 47.735 49.756 52.1576 54.8695 57.9475 58 25.3824 26.202 27.0857 27.1702 28.091 28.1159 28.8936 29.7927 30.822 30.9639 31.9252 32.9713 34.1499 34.2808 35.4588 36.5665 37.8372 39.2556 40.7222 41.9675 43.7014 43.8618 45.7436 45.8155 47.8638 47.951 49.8623 52.3064 52.4746 55.216 55.6242 58 26.7378 27.6113 27.7311 28.4763 29.4148 29.5792 30.3432 31.2321 32.2403 33.3127 34.3858 35.4279 36.6788 36.6836 37.9571 39.3425 40.6802 42.2366 42.5323 43.9876 45.7668 47.5319 49.6066 49.6615 51.9316 52.0694 54.1814 56.9331 56.9803 58 28.1114 29.1241 29.4571 30.3969 31.4918 31.5607 32.7001 32.7384 33.7893 35.0191 35.0906 36.3765 36.5916 37.9234 39.3262 40.8136 40.8182 42.3841 42.4854 44.1232 45.7098 47.4516 49.4213 49.6228 51.747 51.9701 54.0899 56.5724 56.9207 58 29.2924 30.2223 30.3893 31.3597 31.3796 32.381 33.4295 33.4652 34.559 34.7012 35.849 35.8542 37.0547 37.1406 38.3619 39.6861 39.8969 41.3032 41.3789 42.7089 43.9976 45.2899 46.4887 48.2477 50.1114 52.1768 54.461 54.8468 57.3883 57.9622 58 30.6928 31.3507 32.1802 32.9427 33.8594 34.8914 35.0408 35.8522 36.9726 37.0678 38.2458 38.4913 39.4653 40.6804 41.9713 43.3534 44.719 46.2221 47.9397 49.6873 51.6761 53.5922 55.8903 58 31.6882 32.5152 33.3802 34.2874 34.2939 35.2119 36.1928 36.2294 37.0759 38.1381 38.2929 39.4118 39.4142 40.4814 41.7086 42.9965 44.3592 45.8111 46.1082 47.6471 49.3205 49.3244 50.9638 52.7271 54.8141 54.9971 57.3022 57.4017 58 32.9437 33.486 34.2519 34.2622 35.057 35.0755 35.9018 35.9342 36.7951 36.9328 37.8358 37.8397 38.7338 39.6803 40.7104 40.7605 41.7952 42.9354 43.0228 44.2325 44.2937 45.5799 45.7064 47.0835 47.2091 48.6901 48.8472 50.1951 51.7311 53.4565 55.2776 57.4749 57.9935 58 34.8838 35.9702 37.1087 37.1457 38.2134 39.4387 39.6617 40.9466 40.9964 42.1897 43.5859 43.7288 45.1854 46.7263 46.7593 48.3593 49.7854 51.579 51.5977 53.1864 55.1314 57.1957 58 36.3418 37.2238 38.2282 38.2785 39.3236 39.4336 40.4318 41.5568 42.7392 42.8337 44.0745 44.1156 45.3809 46.747 46.8609 48.3058 48.3076 49.834 49.9247 51.5478 51.6325 53.3646 53.4147 54.8952 56.6957 58 37.7595 38.3585 39.2078 39.2739 39.9809 40.7586 41.5442 42.5196 42.609 43.6307 43.6328 44.6245 45.6822 46.8505 46.8678 48.0983 48.2042 49.5089 49.6645 51.0001 52.4311 53.9925 55.335 57.1211 57.4238 58 39.6321 40.5137 40.9513 41.8714 42.7519 43.7466 43.8487 44.7519 45.6601 46.7735 46.8528 48.019 48.0374 49.2585 49.5976 50.8951 51.1155 52.1981 53.6342 53.6642 55.1849 55.3596 56.8845 58 41.374 42.1872 43.0865 43.3336 44.1149 45.0859 45.2065 46.0622 47.1117 47.1817 48.2792 48.3613 49.5118 49.7862 50.8607 52.1323 52.1624 53.5022 53.6086 55.0285 55.1279 56.6374 56.989 58 43.2269 44.1959 44.2559 45.2286 46.2728 46.3503 47.4392 47.5216 48.6592 48.958 50.0667 51.2739 52.5553 53.775 55.1967 56.5949 58 45.2773 46.1949 46.2053 47.1561 47.2218 48.2103 48.2151 49.1728 50.1005 51.2044 51.2744 52.429 52.4591 53.6403 54.905 54.9892 56.3213 56.3414 57.6521 58 47.2961 48.2969 49.3596 49.4371 50.3851 51.4784 52.4501 53.6779 53.6845 54.9469 56.2584 57.6605 57.6744 58 49.2437 50.3436 50.5588 51.5744 52.7601 52.8956 54.1328 54.2289 55.3595 56.6991 56.7655 58 51.7069 52.5992 52.7531 53.6638 54.6291 54.7563 55.765 55.7801 56.8286 57.8816 58 54.2657 55.188 56.1821 56.435 57.4749 57.5349 58 57.063 58 0.550854 1.06803 1.61841 2.14375 2.73023 2.86799 3.46702 3.49531 4.10542 4.13521 4.73927 5.28599 5.92892 5.94738 6.60287 6.67012 7.32022 8.00259 8.00841 8.70468 8.71671 9.37785 10.1026 10.1067 10.8226 11.5787 11.6153 12.3892 12.4129 13.0882 13.8962 13.9375 14.6979 15.545 15.622 16.4463 17.3381 17.62 18.4548 19.4007 19.4817 20.4566 20.4645 21.468 21.5266 22.562 22.5715 23.6392 23.8216 24.8967 25.9999 27.1022 28.1664 29.4256 29.4462 30.4153 31.6718 33.0406 34.4271 35